################################################################################
# Symmetry function scaling data.
################################################################################
# Col  Name     Description
################################################################################
# 1    e_index  Element index.
# 2    sf_index Symmetry function index.
# 3    sf_min   Symmetry function minimum.
# 4    sf_max   Symmetry function maximum.
# 5    sf_mean  Symmetry function mean.
# 6    sf_sigma Symmetry function sigma.
#########################################################################################################################
#        1          2                        3                        4                        5                        6
#  e_index   sf_index                   sf_min                   sf_max                  sf_mean                 sf_sigma
#########################################################################################################################
         1          1   0.0000000000000000E+00   1.7021379116314549E+01   3.0352469307742469E+00   2.0532274091569516E+00
         1          2   0.0000000000000000E+00   1.5533776587005232E+01   2.7511294140159039E+00   1.8645767466167562E+00
         1          3   0.0000000000000000E+00   3.6484569440797586E+01   6.6564013753185369E+00   4.4929225310927068E+00
         1          4   0.0000000000000000E+00   3.2340359088625682E+01   5.8876156354437548E+00   3.9729104406197040E+00
         1          5   0.0000000000000000E+00   1.1121031975460458E+01   1.8983689756785549E+00   1.3033780995144417E+00
         1          6   0.0000000000000000E+00   1.0610583428062741E+00   2.7987720641471450E-02   6.8517567329651766E-02
         1          7   0.0000000000000000E+00   2.5278324271772328E+00   7.4923514185717952E-02   1.7874345831191885E-01
         1          8   0.0000000000000000E+00   6.4336233596329473E-01   2.0430747036239327E-02   4.9078580771909831E-02
         1          9   0.0000000000000000E+00   7.2105308395728221E-02   1.3431109550852084E-03   3.8852807032968974E-03
         1         10   0.0000000000000000E+00   5.0963905278059995E-02   8.1887088563189743E-04   2.5783361054444341E-03
         1         11   0.0000000000000000E+00   4.3633349512660247E-01   1.1886078612956839E-02   3.1438476049396598E-02
         1         12   0.0000000000000000E+00   1.0498347683925704E+00   2.7632176409455436E-02   6.7735883501498020E-02
         1         13   0.0000000000000000E+00   2.5012768089169941E+00   7.3976351020231160E-02   1.7671240457529833E-01
         1         14   0.0000000000000000E+00   6.3640638056080323E-01   2.0146589184577682E-02   4.8476233303418804E-02
         1         15   0.0000000000000000E+00   7.1346433834868078E-02   1.3241546500300959E-03   3.8366138618892345E-03
         1         16   0.0000000000000000E+00   1.3624633266771342E+00   4.0566485555925215E-02   9.8668293316645603E-02
         1         17   0.0000000000000000E+00   2.6255238925846636E-01   7.7940374117472519E-03   1.8912958429985499E-02
         1         18   0.0000000000000000E+00   8.8747612413367472E-01   2.2563864841249379E-02   5.6496160367180019E-02
         1         19   0.0000000000000000E+00   2.1172006401986381E+00   6.0470670498628594E-02   1.4750790741744513E-01
         1         20   0.0000000000000000E+00   5.3582647437977282E-01   1.6132626234460282E-02   3.9865742980999930E-02
         1         21   0.0000000000000000E+00   1.1497294944765486E+00   3.3100037361713325E-02   8.2176028313209221E-02
         1         22   0.0000000000000000E+00   3.5956479057057489E-01   9.4831022558776439E-03   2.5595404555122492E-02
         1         23   0.0000000000000000E+00   7.2024860525222190E-01   1.7512273563579515E-02   4.5072139407038220E-02
         1         24   0.0000000000000000E+00   1.0868030975927152E-01   7.1537854104579564E-04   2.7572736100247423E-03
         1         25   0.0000000000000000E+00   1.7217219904220886E+00   4.6999937356935459E-02   1.1781964597441558E-01
         1         26   0.0000000000000000E+00   4.3235690942773586E-01   1.2211649525278074E-02   3.1227444574566710E-02
         1         27   0.0000000000000000E+00   4.8933626838679189E-02   7.9400987030186197E-04   2.4406746240943212E-03
         1         28   0.0000000000000000E+00   3.5124511878777860E-02   4.9649140817244241E-04   1.6534585649189983E-03
         1         29   0.0000000000000000E+00   4.7212251907696573E-01   1.0434685405301273E-02   2.8500398266254581E-02
         1         30   0.0000000000000000E+00   1.2580388647545668E-01   2.9396449662223551E-03   8.1129637510633998E-03
         1         31   0.0000000000000000E+00   7.2719376517897130E-02   3.8950619639557349E-04   1.6268106574100910E-03
         1         32   0.0000000000000000E+00   1.1349065322379412E+00   2.8098311097534155E-02   7.4721285070862717E-02
         1         33   0.0000000000000000E+00   2.7930354341459090E-01   6.9016046846647455E-03   1.8976498449490665E-02
         1         34   0.0000000000000000E+00   1.1609980822942377E-01   1.0933076172395164E-03   4.2642602164417566E-03
         1         35   0.0000000000000000E+00   9.8166508785823239E-02   1.6729066624693817E-03   5.1861380888663681E-03
         1         36   0.0000000000000000E+00   3.1909520487773971E-02   4.3989561660614666E-04   1.4514621121354085E-03
         1         37   0.0000000000000000E+00   6.0928294952795603E-01   1.5244059432424743E-02   4.1168129275914872E-02
         1         38   0.0000000000000000E+00   1.4117385598668170E-01   3.3346523389349170E-03   9.5788660241164433E-03
         1         39   0.0000000000000000E+00   2.3313550836919467E-02   2.8210047693106943E-04   1.0042906920876026E-03
         1         40   0.0000000000000000E+00   1.7912150188377132E-01   4.1881912729984485E-03   1.2214038915380573E-02
         1         41   0.0000000000000000E+00   2.1050865418070278E-01   3.8116809721128087E-03   1.1788162149384560E-02
         1         42   0.0000000000000000E+00   5.5147749247665710E-02   9.6537756126929006E-04   3.1117367729927006E-03
         1         43   0.0000000000000000E+00   3.2456762756627663E-02   1.1764946610172773E-04   5.7854136651758605E-04
         1         44   0.0000000000000000E+00   5.1363395823443847E-01   1.0342679672454169E-02   3.1130106642456790E-02
         1         45   0.0000000000000000E+00   4.2761737945868274E-02   5.6746887182909981E-04   1.9894800317633377E-03
         1         46   0.0000000000000000E+00   1.3875841068732289E-02   1.3568083043419710E-04   5.1862907135929060E-04
         1         47   0.0000000000000000E+00   5.7739411889610674E-02   1.0697081296426503E-03   3.5146823970240186E-03
         1         48   0.0000000000000000E+00   7.2663640120476436E-02   1.4151850065987459E-03   4.6031238423437960E-03
         1         49   0.0000000000000000E+00   5.2861099306898557E-02   6.1596163933583530E-04   2.4017450579947551E-03
         1         50   0.0000000000000000E+00   1.3717538273942320E-02   1.2520698677875419E-04   5.3375417801759101E-04
         1         51   0.0000000000000000E+00   2.7095422974120591E-02   2.9384645679043561E-04   1.2164341772221881E-03
         1         52   0.0000000000000000E+00   1.0098915651489579E-02   7.6336336391372679E-05   3.3719602968059571E-04
         1         53   0.0000000000000000E+00   1.2335985536250076E-02   1.3350359585802762E-04   5.5881032553246673E-04
         1         54   0.0000000000000000E+00   1.4197800099463786E-02   1.9144210596453988E-04   7.6179641872308184E-04
         1         55   0.0000000000000000E+00   4.8328741181977381E-03   2.8399555420516969E-05   1.5642151867968935E-04
         1         56   0.0000000000000000E+00   1.1328273679381469E-02   8.0151143257283219E-05   4.2653476352076994E-04
         1         57   0.0000000000000000E+00   3.2726030589027157E+00   1.8293691743576609E-01   3.1386860931849825E-01
         1         58   0.0000000000000000E+00   2.8109611056538547E+01   1.2285029336166857E+00   2.3987117679019048E+00
         1         59   0.0000000000000000E+00   1.6055864422237754E+01   7.0695289206264422E-01   1.3940382725637088E+00
         1         60   0.0000000000000000E+00   3.9789062301535751E+00   2.3804094572750209E-01   4.3487469429663583E-01
         1         61   0.0000000000000000E+00   6.0221207355662534E+00   2.5199174179320061E-01   5.2207490452891625E-01
         1         62   0.0000000000000000E+00   1.1552033893770949E+01   4.6004775659924918E-01   9.1108901580151347E-01
         1         63   0.0000000000000000E+00   2.7493124979078395E+01   1.1989989614053089E+00   2.3430993768848070E+00
         1         64   0.0000000000000000E+00   1.5703625873174166E+01   6.8993631322059301E-01   1.3617159089238522E+00
         1         65   0.0000000000000000E+00   5.8829186555639383E+00   2.4579430139314126E-01   5.0979573155750302E-01
         1         66   0.0000000000000000E+00   1.1062236066022724E+01   4.3831754887868241E-01   8.6973072665036333E-01
         1         67   0.0000000000000000E+00   2.6310998284546173E+01   1.1425314587263742E+00   2.2366163971386990E+00
         1         68   0.0000000000000000E+00   2.6174770572889949E+00   9.1108353276829784E-02   1.9040270702815773E-01
         1         69   0.0000000000000000E+00   1.5028147727842684E+01   6.5736242405641510E-01   1.2998091165353070E+00
         1         70   0.0000000000000000E+00   5.6160285435043908E+00   2.3393070593577270E-01   4.8626774159092684E-01
         1         71   0.0000000000000000E+00   1.0053497736607346E+01   3.9380319157628096E-01   7.8489725203960581E-01
         1         72   0.0000000000000000E+00   2.3879323105471780E+01   1.0268608196610156E+00   2.0182740505465975E+00
         1         73   0.0000000000000000E+00   2.3813211385370758E+00   8.1776233152034847E-02   1.7192126315710296E-01
         1         74   0.0000000000000000E+00   5.0673004718753623E+00   2.0962246949804719E-01   4.3795879545022981E-01
         1         75   0.0000000000000000E+00   2.2968199723703591E+00   1.1977396390821395E-01   2.1219112686585320E-01
         1         76   0.0000000000000000E+00   1.9586418806378457E+01   8.2457146129358050E-01   1.6355171290622497E+00
         1         77   0.0000000000000000E+00   4.1130327210691666E+00   1.6711782702017131E-01   3.5309157483441034E-01
         1         78   0.0000000000000000E+00   6.7550962892760502E-01   1.2373259223276712E-02   3.3744327324379875E-02
         1         79   0.0000000000000000E+00   1.3200239923439959E+01   5.3009921378196745E-01   1.0749142575518063E+00
         1         80   0.0000000000000000E+00   3.3821588134271940E+00   1.7793298392019036E-01   3.3414373315887180E-01
         1         81   0.0000000000000000E+00   1.6417768431915782E+00   3.6198003085953293E-02   9.1550049980805820E-02
         1         82   0.0000000000000000E+00   1.3264290461560211E+00   4.1520507073715518E-02   9.1169121922469620E-02
         1         83   0.0000000000000000E+00   4.0426841056816115E-01   1.4587189373380129E-02   2.9824886869674057E-02
         1         84   0.0000000000000000E+00   7.5337003925735946E+00   3.0371421536334747E-01   6.2297988545296645E-01
         1         85   0.0000000000000000E+00   1.8252098492784030E+00   9.4526542327483240E-02   1.8591790275239337E-01
         1         86   0.0000000000000000E+00   2.7210222658072389E+00   1.0543434589220542E-01   2.2860218565827886E-01
         1         87   0.0000000000000000E+00   6.5335689716913137E-01   2.7566088585805872E-02   6.1856343460013001E-02
         1         88   0.0000000000000000E+00   2.7439974233695374E+00   8.8119804040739810E-02   1.9275405875186549E-01
         1         89   0.0000000000000000E+00   7.4147047053746284E-01   3.0476611676711240E-02   6.1597413961631903E-02
         1         90   0.0000000000000000E+00   3.5593421317999518E-01   4.7565219631787656E-03   1.4296394121971362E-02
         1         91   0.0000000000000000E+00   6.4501700061201106E+00   2.3174685020539718E-01   4.9693294153353429E-01
         1         92   0.0000000000000000E+00   1.6572153032397492E+00   7.1952165615281144E-02   1.4746732645267022E-01
         1         93   0.0000000000000000E+00   6.3952738599948533E-01   1.7450786145022937E-02   4.1142789701173500E-02
         1         94   0.0000000000000000E+00   1.9470399619401565E-01   5.7449772914232936E-03   1.3074149690863061E-02
         1         95   0.0000000000000000E+00   3.6429537102340404E+00   1.3162210888723808E-01   2.8578382743743180E-01
         1         96   0.0000000000000000E+00   8.8038684516271504E-01   3.7475216603784736E-02   8.0589520968906161E-02
         1         97   0.0000000000000000E+00   3.9166363762016437E-01   7.6185134497125566E-03   2.1506299339990948E-02
         1         98   0.0000000000000000E+00   1.2695554875867934E+00   4.3880620553083401E-02   1.0111763775459470E-01
         1         99   0.0000000000000000E+00   2.9147427669456372E-01   1.0296411434380537E-02   2.5394483701115501E-02
         1        100   0.0000000000000000E+00   8.4658007775400657E-01   2.1231413937244543E-02   5.3531834280344227E-02
         1        101   0.0000000000000000E+00   2.2691841843659291E-01   6.4460215843344200E-03   1.5870849557729931E-02
         1        102   0.0000000000000000E+00   1.2475746728722936E-01   8.9882357253958853E-04   3.3312183455122798E-03
         1        103   0.0000000000000000E+00   2.0114314268417939E+00   5.6526434942117301E-02   1.3916247091237510E-01
         1        104   0.0000000000000000E+00   5.0375101954082435E-01   1.5056115560278242E-02   3.7241857132074896E-02
         1        105   0.0000000000000000E+00   1.8559123363288010E-01   3.8286055133127700E-03   1.0592655064387677E-02
         1        106   0.0000000000000000E+00   5.9427164872827433E-02   1.1057629625401061E-03   3.1213500574046788E-03
         1        107   0.0000000000000000E+00   2.5956788483588378E-01   7.5393348634001682E-03   1.9477574112700326E-02
         1        108   0.0000000000000000E+00   9.1518441607836551E-02   1.3322732721939145E-03   4.6282785761931813E-03
         1        109   0.0000000000000000E+00   4.3758601945458497E-02   7.2069446582284365E-04   2.1735862455646883E-03
         1        110   0.0000000000000000E+00   3.4936159313873866E-01   9.5175423380117145E-03   2.5198280389534401E-02
         1        111   0.0000000000000000E+00   7.5615756254434896E-02   1.8200944369032312E-03   5.3669711042193726E-03
         1        112   0.0000000000000000E+00   1.4641119894870783E-01   2.2727076866654755E-03   7.6181139579775793E-03
         1        113   0.0000000000000000E+00   3.7869272334960222E-02   5.3679561676378107E-04   1.8978526982029735E-03
         1        114   0.0000000000000000E+00   3.5400797449690485E-01   6.1854809842826755E-03   2.0190100411696124E-02
         1        115   0.0000000000000000E+00   7.7639699052341055E-02   1.2515460725152870E-03   4.3524424216403734E-03
         1        116   0.0000000000000000E+00   2.9382551882158568E-02   3.3012420778129510E-04   1.2333574870885856E-03
         1        117   0.0000000000000000E+00   3.7928218234782873E-02   5.8868773417489586E-04   2.0913398020117168E-03
         1        118   0.0000000000000000E+00   1.1073048265860481E-02   7.6863258054328841E-05   3.8850092293144265E-04
         1        119   0.0000000000000000E+00   2.5686634476595617E-02   2.1558844336062944E-04   1.0551989746184871E-03
         2          1   0.0000000000000000E+00   4.4183951462356710E+00   3.1326315130034404E-01   3.7564007083625972E-01
         2          2   0.0000000000000000E+00   7.5734162340708988E-01   8.1407307493667466E-02   9.0485257101564159E-02
         2          3   0.0000000000000000E+00   1.1403822082463317E+00   1.5335442309631292E-01   1.4712411554723251E-01
         2          4   0.0000000000000000E+00   2.4382887732038641E+00   1.2994421112493953E-01   1.8677291284930383E-01
         2          5   0.0000000000000000E+00   1.0310076721188710E-01   2.9723949380217906E-03   7.1631545040365067E-03
         2          6   0.0000000000000000E+00   2.4691829164827039E-01   8.4145582789259283E-03   1.9383832924041829E-02
         2          7   0.0000000000000000E+00   1.2144335310300240E+00   1.5509068784355918E-02   5.0863616724359302E-02
         2          8   0.0000000000000000E+00   2.9510446913325245E-01   7.9322453759089386E-03   2.0857069101545830E-02
         2          9   0.0000000000000000E+00   1.0185508469651160E-01   2.9259106803229645E-03   7.0656165213738263E-03
         2         10   0.0000000000000000E+00   5.1182078325130824E-02   6.4542765518835687E-04   2.3364209152324680E-03
         2         11   0.0000000000000000E+00   1.2003245028749145E+00   1.5296250859040015E-02   5.0243909808682076E-02
         2         12   0.0000000000000000E+00   9.9413000436395296E-02   2.8352743769050697E-03   6.8748942318479396E-03
         2         13   0.0000000000000000E+00   1.5854390938191250E-02   2.4249407613518382E-04   8.6605573064519800E-04
         2         14   0.0000000000000000E+00   1.1726676062228114E+00   1.4880277319815470E-02   4.9030284175024641E-02
         2         15   0.0000000000000000E+00   7.1915538387733180E-01   6.2498444915028480E-03   2.5820434558352912E-02
         2         16   0.0000000000000000E+00   2.2416692391072313E-01   7.4846453256372080E-03   1.7515639875514442E-02
         2         17   0.0000000000000000E+00   1.1130739164104193E+00   1.3989510754978715E-02   4.6420488750274304E-02
         2         18   0.0000000000000000E+00   4.6886493411778613E-01   1.2165229549032278E-02   3.1826504479219420E-02
         2         19   0.0000000000000000E+00   2.0042501870179730E-01   6.4543400789438118E-03   1.5411353927869759E-02
         2         20   0.0000000000000000E+00   5.1347997480720631E-01   4.1100478902764380E-03   1.7813745453340826E-02
         2         21   0.0000000000000000E+00   1.5197837534194084E-01   3.2724211352980715E-03   9.3250391618888689E-03
         2         22   0.0000000000000000E+00   6.5720087369640134E-02   1.6586209062865690E-03   4.3178358479746028E-03
         2         23   0.0000000000000000E+00   3.7599084515320041E-01   9.0256257390724341E-03   2.4567907461866649E-02
         2         24   0.0000000000000000E+00   3.2867794236645452E-02   3.6159582701147155E-04   1.3914269066509811E-03
         2         25   0.0000000000000000E+00   1.0133651307221511E-02   1.3513612950587694E-04   5.0911443891950596E-04
         2         26   0.0000000000000000E+00   1.9579589971593578E-01   4.5621209507397988E-03   1.2827936138803233E-02
         2         27   0.0000000000000000E+00   5.0290757090945132E-02   9.0860524207613306E-04   3.1038472703160129E-03
         2         28   0.0000000000000000E+00   1.5626340063142414E-02   3.3883576424593282E-04   1.1100021712023157E-03
         2         29   0.0000000000000000E+00   3.2211133030983669E-01   2.2947307334528853E-03   1.0651584364801655E-02
         2         30   0.0000000000000000E+00   3.9505364610405498E-02   8.6008177421533361E-04   2.4470326248004510E-03
         2         31   0.0000000000000000E+00   5.4218937410092004E-02   2.3677514420110328E-04   1.5183755416033732E-03
         2         32   0.0000000000000000E+00   1.9544579102704976E-02   1.8429401069874774E-04   7.6104929441132146E-04
         2         33   0.0000000000000000E+00   5.0366676765390062E-01   5.2962703484613965E-03   1.9775405520959136E-02
         2         34   0.0000000000000000E+00   1.2490268149072445E-01   2.4610897992143241E-03   7.4726594978725153E-03
         2         35   0.0000000000000000E+00   4.7244372365755016E-02   1.1734989764615501E-03   3.2870883917430400E-03
         2         36   0.0000000000000000E+00   1.5718511265862500E-01   1.6190470439175861E-03   6.0507372615168841E-03
         2         37   0.0000000000000000E+00   3.0615920550212141E-02   4.7295064602553231E-04   1.7111543536344239E-03
         2         38   0.0000000000000000E+00   8.5578420323923626E-03   1.6483166946857232E-04   5.7142493290072342E-04
         2         39   0.0000000000000000E+00   1.4279325653810437E-02   2.3148483757280233E-04   7.8611228507970458E-04
         2         40   0.0000000000000000E+00   3.7071225875028435E-01   2.8732207305597977E-03   1.2958872926603813E-02
         2         41   0.0000000000000000E+00   9.7876986899586890E-02   1.4559883092324336E-03   5.0747655239093119E-03
         2         42   0.0000000000000000E+00   1.8840849173103191E-02   6.7370653969530886E-05   4.9005270839568276E-04
         2         43   0.0000000000000000E+00   2.0718709522716519E-01   1.7414415936748283E-03   7.5266516196951594E-03
         2         44   0.0000000000000000E+00   5.1654870804895239E-02   7.2842575257461156E-04   2.5773216460825347E-03
         2         45   0.0000000000000000E+00   6.0552691232561746E-02   5.0663997369889302E-04   2.1507878082171724E-03
         2         46   0.0000000000000000E+00   2.1897659426603770E-03   1.9416449424166622E-05   8.9396410818989093E-05
         2         47   0.0000000000000000E+00   7.5670407746291024E-02   3.7633580762181474E-04   2.2244459309836845E-03
         2         48   0.0000000000000000E+00   5.6587959930003264E-03   5.6443087340288039E-05   2.5173638224210355E-04
         2         49   0.0000000000000000E+00   4.0954069134536850E-02   2.2511572189403846E-04   1.2752179315563311E-03
         2         50   0.0000000000000000E+00   2.6780105652882981E-03   2.5738898648711068E-05   1.1454856258999345E-04
         2         51   0.0000000000000000E+00   1.0208568886190393E-02   5.8309228972754365E-05   3.1500774797890225E-04
         2         52   0.0000000000000000E+00   4.1163357160797012E-03   1.1338691201620969E-05   1.0000585691661751E-04
         2         53   0.0000000000000000E+00   1.0878393928011246E+01   1.6735418875534572E-01   4.8812855044188641E-01
         2         54   0.0000000000000000E+00   1.9823119986903557E+00   1.2133457339191639E-01   1.9968096997175053E-01
         2         55   0.0000000000000000E+00   1.3594989187815141E+00   6.5866700152604832E-02   1.3371667328176121E-01
         2         56   0.0000000000000000E+00   1.0627978766378504E+01   1.6292324345605538E-01   4.7618353228455645E-01
         2         57   0.0000000000000000E+00   6.2852436963097995E+00   3.9254266764830176E-01   6.7737265806982638E-01
         2         58   0.0000000000000000E+00   3.2185896075990372E-01   1.3713957591023019E-02   2.6364703221980271E-02
         2         59   0.0000000000000000E+00   1.5843432126990615E+01   3.1570303819187484E-01   7.7994377170962637E-01
         2         60   0.0000000000000000E+00   6.0136009430415678E+00   1.1864370435168990E-01   2.9463961734932320E-01
         2         61   0.0000000000000000E+00   2.5969524442469837E+01   4.9170361364449178E-01   1.2555558166869680E+00
         2         62   0.0000000000000000E+00   1.5139370646604768E+01   3.0014217741859572E-01   7.4368083556348463E-01
         2         63   0.0000000000000000E+00   3.3587957919999014E+00   2.0239976228905193E-01   3.6362889438414703E-01
         2         64   0.0000000000000000E+00   2.3480612734154413E+01   4.3908391516031581E-01   1.1291598278524493E+00
         2         65   0.0000000000000000E+00   1.3691464570486506E+01   2.6833373566358798E-01   6.6932879574515236E-01
         2         66   0.0000000000000000E+00   1.6667911815528744E+00   9.9275777303824295E-02   1.6567269599734413E-01
         2         67   0.0000000000000000E+00   7.4303951707704528E+00   1.0758147605151000E-01   3.2513181373227057E-01
         2         68   0.0000000000000000E+00   1.9781746440967523E+00   1.0093274461461697E-01   1.8273917831701841E-01
         2         69   0.0000000000000000E+00   1.9101082777379009E+01   3.4773560070572423E-01   9.0815854474338353E-01
         2         70   0.0000000000000000E+00   4.4762229054287088E+00   2.5811797347710264E-01   4.6180633821521194E-01
         2         71   0.0000000000000000E+00   2.4872590650205209E+00   1.4250382715224774E-01   2.3520946109268237E-01
         2         72   0.0000000000000000E+00   1.6287177123292951E+00   1.7997824816946482E-02   6.5355407855819767E-02
         2         73   0.0000000000000000E+00   1.1137980451295865E+01   2.1297434188160574E-01   5.3905726557773703E-01
         2         74   0.0000000000000000E+00   9.1019627775372614E-01   4.1116008946140474E-02   8.7298488078267983E-02
         2         75   0.0000000000000000E+00   4.8801382279141734E+00   6.5655107496791876E-02   2.0730790521401560E-01
         2         76   0.0000000000000000E+00   1.3296745934320668E+00   6.0866199047642532E-02   1.1626639175355372E-01
         2         77   0.0000000000000000E+00   6.8084506309267778E-01   3.2016843568440041E-02   5.7126998157709559E-02
         2         78   0.0000000000000000E+00   1.2636810671328314E+01   2.1686834507081851E-01   5.8649345439037970E-01
         2         79   0.0000000000000000E+00   3.0224015569354905E+00   1.5646008352443785E-01   2.9380374372009366E-01
         2         80   0.0000000000000000E+00   1.6326367303075979E+00   8.6700117147909539E-02   1.4912614794141113E-01
         2         81   0.0000000000000000E+00   3.3060933885691191E-01   1.0598612967842543E-02   2.3650042909105041E-02
         2         82   0.0000000000000000E+00   7.3554970267685533E+00   1.3330415144119964E-01   3.4877088557561531E-01
         2         83   0.0000000000000000E+00   1.6553361079236244E+00   8.4327125777373002E-02   1.6431522261393444E-01
         2         84   0.0000000000000000E+00   8.7640811606389268E-01   4.6616018612893842E-02   8.2743539490605186E-02
         2         85   0.0000000000000000E+00   2.7387965726602128E+00   4.9300223414965448E-02   1.2981105717840616E-01
         2         86   0.0000000000000000E+00   5.8156941690691000E-01   2.4077764950976729E-02   5.4011651326502215E-02
         2         87   0.0000000000000000E+00   2.2438931421237323E+00   2.5780048775830480E-02   8.9449043488476876E-02
         2         88   0.0000000000000000E+00   5.8758830061048863E+00   8.8796268262990044E-02   2.6013916186745017E-01
         2         89   0.0000000000000000E+00   4.7213565993511136E-01   3.9017735974379826E-03   1.6928212062116053E-02
         2         90   0.0000000000000000E+00   1.5453052257716479E-01   3.7406347398263842E-03   9.6352904609694687E-03
         2         91   0.0000000000000000E+00   3.4227816500397181E+00   5.4802422089101910E-02   1.5478543214360785E-01
         2         92   0.0000000000000000E+00   7.9290938323065896E-01   3.2037778279148409E-02   6.9436929728368069E-02
         2         93   0.0000000000000000E+00   3.8663866121555834E-01   1.7433646548176161E-02   3.4214326994609939E-02
         2         94   0.0000000000000000E+00   1.2309568585462134E+00   1.9690462381186609E-02   5.5884179733223849E-02
         2         95   0.0000000000000000E+00   2.5418493746096327E-01   8.5469673804773882E-03   2.1518707039180934E-02
         2         96   0.0000000000000000E+00   6.1032577044357939E-01   5.1367170981416466E-03   2.1549793707562739E-02
         2         97   0.0000000000000000E+00   7.7325481669694732E-02   2.1131309579128480E-03   5.2585653933298745E-03
         2         98   0.0000000000000000E+00   1.6579422481786101E+00   1.8915465771036567E-02   6.6301475103257346E-02
         2         99   0.0000000000000000E+00   4.3914221493384509E-01   1.1307437164252433E-02   2.9568405893260104E-02
         2        100   0.0000000000000000E+00   1.8389805510875795E-01   5.9115234544815220E-03   1.4106540463508049E-02
         2        101   0.0000000000000000E+00   1.1591260820119245E-01   6.5559325191233149E-04   3.5706811511500404E-03
         2        102   0.0000000000000000E+00   9.4865253026380880E-01   1.1668310580168898E-02   3.9220921756209601E-02
         2        103   0.0000000000000000E+00   3.1773339780640525E-01   3.9023190782853478E-03   1.3036806442139734E-02
         2        104   0.0000000000000000E+00   6.2816179775883940E-02   1.3506332224265812E-03   4.2141240328923656E-03
         2        105   0.0000000000000000E+00   8.2835132811331941E-03   1.1146822417281511E-04   4.1815024561548368E-04
         2        106   0.0000000000000000E+00   2.4062899410332381E-01   1.5980160854470631E-03   7.8907956591544818E-03
         2        107   0.0000000000000000E+00   6.2506347608991694E-02   7.5439575004908083E-04   2.8922041521876021E-03
         2        108   0.0000000000000000E+00   2.2107048959833796E-02   3.2017324125414881E-04   1.1597982503453409E-03
         2        109   0.0000000000000000E+00   1.0478186929080133E-02   1.5049453625057093E-04   5.4784821655943009E-04
         2        110   0.0000000000000000E+00   6.8997056410606888E-03   6.6688296976265488E-05   2.8474485578337642E-04
         2        111   0.0000000000000000E+00   3.2127507850963064E-03   8.2558064690878656E-06   7.3570368594233303E-05
         2        112   0.0000000000000000E+00   1.1000494070408951E-02   3.4709753339580397E-05   2.7650584844777804E-04
         2        113   0.0000000000000000E+00   5.8950773009863212E-03   2.0383195648037469E-05   1.5606851996051975E-04
