################################################################################
# Symmetry function scaling data.
################################################################################
# Col  Name     Description
################################################################################
# 1    e_index  Element index.
# 2    sf_index Symmetry function index.
# 3    sf_min   Symmetry function minimum.
# 4    sf_max   Symmetry function maximum.
# 5    sf_mean  Symmetry function mean.
# 6    sf_sigma Symmetry function sigma.
#########################################################################################################################
#        1          2                        3                        4                        5                        6
#  e_index   sf_index                   sf_min                   sf_max                  sf_mean                 sf_sigma
#########################################################################################################################
         1          1   2.3270324760114119E-02   1.9187491734593610E+01   6.0137941325343212E+00   2.8107285253515504E+00
         1          2   1.8040533210676220E-02   1.8182434971537177E+01   5.6665326499638144E+00   2.6576754457393794E+00
         1          3   1.6854090173579367E-01   2.6406404689294185E+01   8.9447967736735645E+00   4.0959216074503715E+00
         1          4   1.3430213931673537E-01   2.5239553566371640E+01   8.4262618205139415E+00   3.8621942577705135E+00
         1          5   7.9841532121997863E-03   1.4636574382720713E+01   4.5229865705180012E+00   2.1543914287696402E+00
         1          6   0.0000000000000000E+00   3.2253109634317960E+00   4.1053934106204215E-01   4.1243989559640559E-01
         1          7   0.0000000000000000E+00   6.9503136684122646E+00   1.0688830690398341E+00   9.0758386376296107E-01
         1          8   0.0000000000000000E+00   2.1030681131016031E+00   3.2671814832434859E-01   2.9229419286482888E-01
         1          9   0.0000000000000000E+00   3.6065805854196004E-01   2.9056140151752039E-02   3.8668297762852771E-02
         1         10   0.0000000000000000E+00   1.9111180723554375E-01   1.8004575166010183E-02   2.3816736163891059E-02
         1         11   0.0000000000000000E+00   1.2952324844848988E+00   2.2105069757598872E-01   1.6613997921462900E-01
         1         12   0.0000000000000000E+00   3.1985173591835321E+00   4.0682236254653265E-01   4.0873723022714686E-01
         1         13   0.0000000000000000E+00   6.8817591942122256E+00   1.0592512186288185E+00   8.9961552219615959E-01
         1         14   0.0000000000000000E+00   2.0813520742939358E+00   3.2352286054551144E-01   2.8965349006544416E-01
         1         15   0.0000000000000000E+00   3.5768954695827621E-01   2.8768902934777251E-02   3.8300999345434614E-02
         1         16   0.0000000000000000E+00   3.8490512786740272E+00   6.1099411492151612E-01   4.9233796162080923E-01
         1         17   0.0000000000000000E+00   9.3436991040995043E-01   1.3115834676422908E-01   1.4118782921476306E-01
         1         18   0.0000000000000000E+00   2.8019104211809873E+00   3.5237420674862729E-01   3.5448726038031736E-01
         1         19   0.0000000000000000E+00   5.8817302291130691E+00   9.1814011552822394E-01   7.8272425169402038E-01
         1         20   0.0000000000000000E+00   1.7663478160550798E+00   2.7695516921484475E-01   2.5096598101119616E-01
         1         21   0.0000000000000000E+00   3.2993280303195944E+00   5.2910406278958722E-01   4.2813469775208512E-01
         1         22   0.0000000000000000E+00   1.0971381564547600E+00   1.8867861384297246E-01   1.4239137733985430E-01
         1         23   0.0000000000000000E+00   2.3732634486672035E+00   2.9476395524307658E-01   2.9706024449190815E-01
         1         24   0.0000000000000000E+00   5.5790931180231562E-01   1.9002266618700549E-02   3.7055308165324055E-02
         1         25   0.0000000000000000E+00   4.8372261093684141E+00   7.6877951070843431E-01   6.5863152459753971E-01
         1         26   0.0000000000000000E+00   1.4401517761482878E+00   2.2823191708455998E-01   2.1001127315536677E-01
         1         27   0.0000000000000000E+00   2.6667966306555185E-01   2.0179809133683158E-02   2.7277317138241330E-02
         1         28   0.0000000000000000E+00   1.3843885936697414E-01   1.2770132536217985E-02   1.6990482842643095E-02
         1         29   0.0000000000000000E+00   1.6880649495529005E+00   2.0547285969646861E-01   2.0798125477834736E-01
         1         30   0.0000000000000000E+00   5.2226204541648025E-01   6.7207641312266433E-02   7.5059050170195471E-02
         1         31   0.0000000000000000E+00   3.5489919583789348E-01   1.2498724790574100E-02   2.4775301472112213E-02
         1         32   0.0000000000000000E+00   3.5152936405740487E+00   5.3708847579936081E-01   4.6509138212087575E-01
         1         33   0.0000000000000000E+00   1.0319234101712660E+00   1.5414233011613013E-01   1.4645087451978248E-01
         1         34   0.0000000000000000E+00   9.2888867082029403E-01   3.8521660484434485E-02   6.4670838462085559E-02
         1         35   0.0000000000000000E+00   4.0571547251563328E-01   4.2336690585549216E-02   4.9917332312704406E-02
         1         36   0.0000000000000000E+00   1.9175772417784995E-01   1.3485494658616880E-02   1.8603518709284582E-02
         1         37   0.0000000000000000E+00   1.8407348283414218E+00   3.0806533805581143E-01   2.5362535038182088E-01
         1         38   0.0000000000000000E+00   5.1648011787868287E-01   8.0375488976964421E-02   7.3465456905261683E-02
         1         39   0.0000000000000000E+00   1.0060788020260927E-01   8.7314186352361826E-03   1.1751015347350229E-02
         1         40   0.0000000000000000E+00   6.0902739398930428E-01   1.0741225323494330E-01   8.2427302936124977E-02
         1         41   0.0000000000000000E+00   8.6575684529593633E-01   1.0312852247495367E-01   1.0567290260180423E-01
         1         42   0.0000000000000000E+00   2.7915714138551034E-01   3.1933183812844594E-02   3.7353193958896740E-02
         1         43   0.0000000000000000E+00   1.7611909425127620E-01   5.5587917074711784E-03   1.1459570878795606E-02
         1         44   0.0000000000000000E+00   1.9415822687848154E+00   2.7091071415954748E-01   2.4011114315478460E-01
         1         45   0.0000000000000000E+00   2.1693199524766538E-01   2.0571496979898695E-02   2.4515888295294358E-02
         1         46   0.0000000000000000E+00   1.0245617009862817E-01   6.1486001090010354E-03   8.9165180094337784E-03
         1         47   0.0000000000000000E+00   2.8547477178815128E-01   3.6912602090051004E-02   3.6179277906829774E-02
         1         48   0.0000000000000000E+00   3.1096005332542070E-01   5.1853026619990125E-02   4.0854760867329282E-02
         1         49   0.0000000000000000E+00   2.9502721077481903E-01   3.0503049722740809E-02   3.2519767202455620E-02
         1         50   0.0000000000000000E+00   9.4933264048453217E-02   8.4352459623588619E-03   1.0884634145365703E-02
         1         51   0.0000000000000000E+00   1.8969467883325036E-01   1.8770154829555488E-02   2.1405641581257930E-02
         1         52   0.0000000000000000E+00   7.2281110912029864E-02   5.6272213255640722E-03   7.0694786068800936E-03
         1         53   0.0000000000000000E+00   9.5276132126550755E-02   9.1180341735922973E-03   1.0175099604257064E-02
         1         54   0.0000000000000000E+00   1.0210722482799964E-01   1.4097038316386349E-02   1.1838733670725587E-02
         1         55   0.0000000000000000E+00   6.6152419983336166E-02   4.0947151331125527E-03   4.9681563196000509E-03
         1         56   0.0000000000000000E+00   1.3525744560690109E-01   1.1051798896694659E-02   1.1779282669553571E-02
         1         57   0.0000000000000000E+00   8.3939256057542799E+00   1.0159407572291934E+00   1.0223100720009781E+00
         1         58   0.0000000000000000E+00   4.3303066243631122E+01   6.8268527011458833E+00   5.4833079652175245E+00
         1         59   0.0000000000000000E+00   2.2266180134221329E+01   4.0049537984274748E+00   3.0465111930898816E+00
         1         60   0.0000000000000000E+00   7.8941080677875206E+00   1.3219220064760611E+00   9.6910251132219105E-01
         1         61   0.0000000000000000E+00   7.3467162586043093E+00   1.5535244261612167E+00   1.1196835010337476E+00
         1         62   0.0000000000000000E+00   2.3067999555979945E+01   2.6118348679616501E+00   2.6134781636766542E+00
         1         63   0.0000000000000000E+00   4.2688243476918501E+01   6.7193903117894918E+00   5.3975102084988036E+00
         1         64   0.0000000000000000E+00   2.1973201135592248E+01   3.9418605236491033E+00   2.9984705714096052E+00
         1         65   0.0000000000000000E+00   7.2541552700536158E+00   1.5286209655165617E+00   1.1013863146595535E+00
         1         66   0.0000000000000000E+00   2.2295766479824575E+01   2.5306157623142744E+00   2.5315334032620287E+00
         1         67   0.0000000000000000E+00   4.1489612634955094E+01   6.5109926525761050E+00   5.2312539791118970E+00
         1         68   0.0000000000000000E+00   6.0817164033437985E+00   5.6701578054033075E-01   6.9643803975892049E-01
         1         69   0.0000000000000000E+00   2.1400669204675580E+01   3.8194890565017459E+00   2.9054035749764395E+00
         1         70   0.0000000000000000E+00   7.0729821136489264E+00   1.4803170237115990E+00   1.0659599239140107E+00
         1         71   0.0000000000000000E+00   2.0668894873859188E+01   2.3595195367900104E+00   2.3591268854033443E+00
         1         72   0.0000000000000000E+00   3.8936665563755447E+01   6.0719963273643671E+00   4.8815585143204014E+00
         1         73   0.0000000000000000E+00   5.5923405643197936E+00   5.2862674871379012E-01   6.4747994932928266E-01
         1         74   0.0000000000000000E+00   6.6838437856606951E+00   1.3785263702205901E+00   9.9157924218624871E-01
         1         75   0.0000000000000000E+00   6.1932826089195174E+00   7.7146054835198841E-01   7.7695047706093789E-01
         1         76   0.0000000000000000E+00   3.4099037229628522E+01   5.2582260053021495E+00   4.2350171907272474E+00
         1         77   0.0000000000000000E+00   5.9336014271092514E+00   1.1897442027579066E+00   8.5459131856832771E-01
         1         78   0.0000000000000000E+00   4.3726714493669467E+00   1.2478251602999615E-01   2.3735829714188944E-01
         1         79   0.0000000000000000E+00   2.5877316970946104E+01   3.9287542353220983E+00   3.1820268324829213E+00
         1         80   0.0000000000000000E+00   8.7788871986208719E+00   1.3257553567062774E+00   1.0546459458738016E+00
         1         81   0.0000000000000000E+00   9.6687351730866862E+00   3.7635856383490929E-01   6.0089977232460989E-01
         1         82   0.0000000000000000E+00   3.2962203687268694E+00   3.4030213056084069E-01   4.1056592789246882E-01
         1         83   0.0000000000000000E+00   1.3985426458793100E+00   1.2532265894947903E-01   1.6144703124869722E-01
         1         84   0.0000000000000000E+00   1.3761190472017702E+01   2.3014790052120371E+00   1.7611579465224843E+00
         1         85   0.0000000000000000E+00   4.5696270472170415E+00   7.2848185375759755E-01   5.4728487081605814E-01
         1         86   0.0000000000000000E+00   4.6154943105962207E+00   8.8136408107655650E-01   6.3330425360499232E-01
         1         87   0.0000000000000000E+00   1.3818648777734304E+00   2.4231824587094863E-01   1.7806301003251560E-01
         1         88   0.0000000000000000E+00   6.8290435518351282E+00   8.7563514346513727E-01   8.7526247106723976E-01
         1         89   0.0000000000000000E+00   2.3094239458728816E+00   3.1501843501117377E-01   3.2534086570669263E-01
         1         90   0.0000000000000000E+00   2.1918396837709868E+00   6.6130721719360325E-02   1.2560978018074451E-01
         1         91   0.0000000000000000E+00   1.4973081384746902E+01   2.2634750330772682E+00   1.8619647355941507E+00
         1         92   0.0000000000000000E+00   4.8246433407654674E+00   7.3263759086308367E-01   6.0779236301540940E-01
         1         93   0.0000000000000000E+00   1.7663301352772041E+00   1.9332851320655900E-01   2.3007296414334255E-01
         1         94   0.0000000000000000E+00   7.2238495811194658E-01   6.8780102252172556E-02   8.9071082968605247E-02
         1         95   0.0000000000000000E+00   8.1786219575478718E+00   1.3215099719002676E+00   1.0271648217850167E+00
         1         96   0.0000000000000000E+00   2.5431445898946672E+00   3.9858613370291029E-01   3.1324895754693843E-01
         1         97   0.0000000000000000E+00   2.8061471073426043E+00   1.2033469321376287E-01   1.8449190755157507E-01
         1         98   0.0000000000000000E+00   2.7658973553483230E+00   4.9669592111671862E-01   3.6042321840654079E-01
         1         99   0.0000000000000000E+00   7.7618084745770821E-01   1.2834624600914626E-01   9.8506813031193366E-02
         1        100   0.0000000000000000E+00   2.6835345056108482E+00   3.3680178331595406E-01   3.3931573853690794E-01
         1        101   0.0000000000000000E+00   8.2588012575187619E-01   1.1347713525397744E-01   1.2352452458188379E-01
         1        102   0.0000000000000000E+00   6.5490976778160304E-01   2.1889975644944985E-02   4.2639788351783170E-02
         1        103   0.0000000000000000E+00   5.4844612002005828E+00   8.7640152337070465E-01   7.4542790818627647E-01
         1        104   0.0000000000000000E+00   1.6473390372197945E+00   2.6091917220874850E-01   2.3716763948104524E-01
         1        105   0.0000000000000000E+00   6.8512719875638328E-01   7.1782529132852380E-02   8.4560145051496879E-02
         1        106   0.0000000000000000E+00   3.0714648939504197E-01   2.3753108064119448E-02   3.1891589817037956E-02
         1        107   0.0000000000000000E+00   8.5399711537885292E-01   1.3840791418573331E-01   1.2020282757649639E-01
         1        108   0.0000000000000000E+00   9.0546970946966521E-01   3.9294982781890496E-02   6.1743664811611740E-02
         1        109   0.0000000000000000E+00   1.5986499731570569E-01   1.5187283571402487E-02   2.0138666603233418E-02
         1        110   0.0000000000000000E+00   1.0308339048150614E+00   1.8225493646507562E-01   1.3665426850269927E-01
         1        111   0.0000000000000000E+00   2.6776990954428342E-01   4.1209073338729710E-02   3.5208023871182888E-02
         1        112   0.0000000000000000E+00   6.6426179053856016E-01   7.5844653459012201E-02   7.8669643109160636E-02
         1        113   0.0000000000000000E+00   2.1509169127621888E-01   2.2572148521868760E-02   2.7316009332127453E-02
         1        114   0.0000000000000000E+00   1.4977789307916132E+00   1.9987014833541783E-01   1.8018022101125369E-01
         1        115   0.0000000000000000E+00   4.4036830739735050E-01   5.0810445704244846E-02   5.3662013062695441E-02
         1        116   0.0000000000000000E+00   1.6522348271386880E-01   1.4813093001137447E-02   1.7891829787960348E-02
         1        117   0.0000000000000000E+00   2.2134553470901278E-01   2.5492526241573967E-02   2.6130122314802912E-02
         1        118   0.0000000000000000E+00   1.1454392974149448E-01   8.2582135113995099E-03   9.5990180260997343E-03
         1        119   0.0000000000000000E+00   2.4049895094524540E-01   2.2191321016349536E-02   2.2680819223634865E-02
         2          1   0.0000000000000000E+00   6.6087722881699289E+00   1.1092015916812386E+00   9.5050781608584800E-01
         2          2   0.0000000000000000E+00   2.3266961598739031E+00   6.9207138576314009E-01   4.2101660026950483E-01
         2          3   0.0000000000000000E+00   3.4162331029316269E+00   9.8458180269692452E-01   5.9187915155842852E-01
         2          4   0.0000000000000000E+00   4.4704710531688603E+00   6.5633678622557068E-01   6.0687754067567123E-01
         2          5   0.0000000000000000E+00   9.8301166911969784E-01   1.1415724557402640E-01   1.3426827805199551E-01
         2          6   0.0000000000000000E+00   2.5107431629941095E+00   3.0506437269200121E-01   3.1689755886531723E-01
         2          7   0.0000000000000000E+00   2.8159411884675509E+00   2.2080502917942588E-01   2.8318211719451775E-01
         2          8   0.0000000000000000E+00   1.0105405443577755E+00   1.6924277054295844E-01   1.3575118982938489E-01
         2          9   0.0000000000000000E+00   9.7230516949955048E-01   1.1298520480420646E-01   1.3288755851256623E-01
         2         10   0.0000000000000000E+00   2.6615308976431634E-01   2.3587848735626749E-02   3.1406597967411125E-02
         2         11   0.0000000000000000E+00   2.7910493203502993E+00   2.1869810142869753E-01   2.8062358824556799E-01
         2         12   0.0000000000000000E+00   9.5130479111535482E-01   1.1068323870677425E-01   1.3017628980207688E-01
         2         13   0.0000000000000000E+00   2.1373466125136059E-01   1.9534435471160738E-02   2.7516561359988756E-02
         2         14   0.0000000000000000E+00   2.7498406613690265E+00   2.1455668189783947E-01   2.7559112635213068E-01
         2         15   0.0000000000000000E+00   2.4823083940130584E+00   9.3923760857109545E-02   1.6552331225948033E-01
         2         16   0.0000000000000000E+00   2.3126067901120146E+00   2.8272713124785764E-01   2.9377566910317632E-01
         2         17   0.0000000000000000E+00   2.6596982561484395E+00   2.0557991358707350E-01   2.6466715178362499E-01
         2         18   0.0000000000000000E+00   1.5762285059208665E+00   2.6276592614257493E-01   2.2440209297280431E-01
         2         19   0.0000000000000000E+00   2.0854585703868787E+00   2.5693058464121082E-01   2.6710455576987430E-01
         2         20   0.0000000000000000E+00   1.9078369404562225E+00   6.9843189869053385E-02   1.2511768306547683E-01
         2         21   0.0000000000000000E+00   6.2770391373044487E-01   8.5872150980996320E-02   9.0549373910577782E-02
         2         22   0.0000000000000000E+00   6.5935006716721722E-01   7.8209777726352223E-02   9.2008234971466735E-02
         2         23   0.0000000000000000E+00   1.2977480699717348E+00   2.1413472943940723E-01   1.8623272165798690E-01
         2         24   0.0000000000000000E+00   1.8935372148498844E-01   1.5879722855982326E-02   2.1540940923256001E-02
         2         25   0.0000000000000000E+00   1.5277142760536055E-01   1.3359721020431228E-02   1.8916698762448048E-02
         2         26   0.0000000000000000E+00   7.0677609484817228E-01   1.1522055786805474E-01   9.5765436533430309E-02
         2         27   0.0000000000000000E+00   2.2012328936016140E-01   3.3450253591956497E-02   2.7661378219902839E-02
         2         28   0.0000000000000000E+00   2.7534147294350597E-01   3.2554249072571227E-02   3.2809713560045320E-02
         2         29   0.0000000000000000E+00   1.3195286909500612E+00   4.6424438525750594E-02   8.5025975674659596E-02
         2         30   0.0000000000000000E+00   4.4679490125107851E-01   5.1509582446789583E-02   6.0733076790839648E-02
         2         31   0.0000000000000000E+00   2.9111048827631297E-01   6.9330688103209524E-03   1.6789223206533387E-02
         2         32   0.0000000000000000E+00   1.2739824256308538E-01   1.0065179651007188E-02   1.3976668477354962E-02
         2         33   0.0000000000000000E+00   1.5661681835846879E+00   1.0609014167908103E-01   1.4166590274027158E-01
         2         34   0.0000000000000000E+00   4.7938238129454247E-01   7.5407100927014553E-02   6.5291691901221430E-02
         2         35   0.0000000000000000E+00   5.9169784169711670E-01   7.5300816353022881E-02   7.6821871995354049E-02
         2         36   0.0000000000000000E+00   4.5590904672004812E-01   4.1200018356263621E-02   4.9643784932044514E-02
         2         37   0.0000000000000000E+00   1.4518991404864445E-01   2.1179761128236416E-02   1.8313094154079137E-02
         2         38   0.0000000000000000E+00   1.6880598869706392E-01   2.0299204377489898E-02   2.0591130797465752E-02
         2         39   0.0000000000000000E+00   2.2402444189509979E-01   2.2768500836337000E-02   2.7127237704905126E-02
         2         40   0.0000000000000000E+00   1.5564687501408416E+00   7.9880348637671628E-02   1.1954901966956372E-01
         2         41   0.0000000000000000E+00   4.3786085399614105E-01   6.2893306107142652E-02   6.1317459753898233E-02
         2         42   0.0000000000000000E+00   1.2545602245912554E-01   2.8766042682730596E-03   7.3418839056782889E-03
         2         43   0.0000000000000000E+00   8.4370196278963605E-01   5.0794596615232154E-02   7.0719394358570956E-02
         2         44   0.0000000000000000E+00   2.3037977948893335E-01   3.3059089005661832E-02   3.1082631794432575E-02
         2         45   0.0000000000000000E+00   2.3985473320678713E-01   1.9283332455577108E-02   2.4080189582686096E-02
         2         46   0.0000000000000000E+00   6.3086406108287543E-02   5.0266366241140080E-03   6.2361550574464245E-03
         2         47   0.0000000000000000E+00   4.6890526213706635E-01   2.1201424333308468E-02   3.4261916923853795E-02
         2         48   0.0000000000000000E+00   1.3702411519884664E-01   1.4062694342040308E-02   1.5921272083908075E-02
         2         49   0.0000000000000000E+00   2.6179643791321444E-01   1.3592745023151203E-02   2.0434291944875022E-02
         2         50   0.0000000000000000E+00   6.5314822999962233E-02   7.0444238197478600E-03   7.7800671682892973E-03
         2         51   0.0000000000000000E+00   6.9804098028155126E-02   4.9259526050766164E-03   6.6073823721036649E-03
         2         52   0.0000000000000000E+00   5.5644604344876974E-02   2.2441780596216508E-03   4.2110279649396282E-03
         2         53   0.0000000000000000E+00   1.6400124454446722E+01   7.8636071566439503E-01   1.1987911497827082E+00
         2         54   0.0000000000000000E+00   1.1792117967019976E+01   1.4252480689940390E+00   1.4781565394118794E+00
         2         55   0.0000000000000000E+00   2.1989006967903828E+00   4.9635662885194082E-01   3.2640988632402801E-01
         2         56   0.0000000000000000E+00   1.6132098732813073E+01   7.7294359931043422E-01   1.1796811601214070E+00
         2         57   0.0000000000000000E+00   1.3216561958802535E+01   2.5241619725607847E+00   1.7909964061600865E+00
         2         58   0.0000000000000000E+00   2.5803458985406444E+00   1.9725410435162538E-01   2.9256132116043077E-01
         2         59   0.0000000000000000E+00   1.6659252200138834E+01   1.5446102394132120E+00   1.7520368576780128E+00
         2         60   0.0000000000000000E+00   5.7248355444133789E+00   6.4623268240970844E-01   6.8481065309299971E-01
         2         61   0.0000000000000000E+00   3.0543963968298375E+01   2.3862660285819879E+00   2.8653592359099269E+00
         2         62   0.0000000000000000E+00   1.6191896659766027E+01   1.4946345484882999E+00   1.6974636604100752E+00
         2         63   0.0000000000000000E+00   6.6452226193660433E+00   1.3637386217775436E+00   9.1161100642254356E-01
         2         64   0.0000000000000000E+00   2.8604956910591536E+01   2.2171996774375113E+00   2.6726970523072406E+00
         2         65   0.0000000000000000E+00   1.5197879693131501E+01   1.3895232647390365E+00   1.5827002308295435E+00
         2         66   0.0000000000000000E+00   1.0406912087686351E+01   1.2468011573461468E+00   1.2879705861222699E+00
         2         67   0.0000000000000000E+00   1.2478941864453363E+01   5.9195678294224363E-01   9.2001870143428177E-01
         2         68   0.0000000000000000E+00   5.7729139496262496E+00   7.8391350403784843E-01   7.3995627362466954E-01
         2         69   0.0000000000000000E+00   2.4960294042487181E+01   1.9052107088346371E+00   2.3162964576608909E+00
         2         70   0.0000000000000000E+00   1.0258120949589753E+01   1.9134846751533281E+00   1.3711928796130564E+00
         2         71   0.0000000000000000E+00   1.6483872664840124E+01   1.8352662726239037E+00   1.9493012610893079E+00
         2         72   0.0000000000000000E+00   3.3029551720568175E+00   1.0905258158023656E-01   2.2307211793647927E-01
         2         73   0.0000000000000000E+00   1.3319579692016779E+01   1.1953336075688088E+00   1.3706068459364718E+00
         2         74   0.0000000000000000E+00   1.6907537339008971E+00   3.6523360497264007E-01   2.4182509381700718E-01
         2         75   0.0000000000000000E+00   9.1509793177939489E+00   4.3020010416898419E-01   6.8384569807284667E-01
         2         76   0.0000000000000000E+00   4.0300395936492226E+00   5.6319808583031805E-01   5.3654472804304032E-01
         2         77   0.0000000000000000E+00   5.2692241369609372E+00   5.0516759254198829E-01   6.1548300204132533E-01
         2         78   0.0000000000000000E+00   1.8857236372070606E+01   1.4002567277919726E+00   1.7352535226128201E+00
         2         79   0.0000000000000000E+00   7.5327381443645676E+00   1.3757211701630896E+00   1.0041451516822331E+00
         2         80   0.0000000000000000E+00   1.1808322026741566E+01   1.3210212806701640E+00   1.3906818221554571E+00
         2         81   0.0000000000000000E+00   1.2955503164937285E+00   1.1971476613755998E-01   1.5002146625906387E-01
         2         82   0.0000000000000000E+00   1.0143074983265226E+01   8.8036455077272624E-01   1.0254824155939453E+00
         2         83   0.0000000000000000E+00   4.0182773213911647E+00   7.6662666769918930E-01   5.2673214724921857E-01
         2         84   0.0000000000000000E+00   6.4513527506969028E+00   7.5827155182728290E-01   7.7364316634510177E-01
         2         85   0.0000000000000000E+00   3.4693670811510500E+00   3.6567744144578507E-01   3.9356831432144523E-01
         2         86   0.0000000000000000E+00   1.2605026198647147E+00   2.5824332023599766E-01   1.7376174793534666E-01
         2         87   0.0000000000000000E+00   5.3303508509687214E+00   2.3366121695342412E-01   3.8787073445282694E-01
         2         88   0.0000000000000000E+00   1.0937228390863735E+01   7.7968638307405547E-01   1.0060540510829346E+00
         2         89   0.0000000000000000E+00   1.4478874003735520E+00   4.1205615834889520E-02   8.9358614802049707E-02
         2         90   0.0000000000000000E+00   6.2582234010756488E-01   6.2160097977803024E-02   7.9122377846976441E-02
         2         91   0.0000000000000000E+00   5.9542159374769961E+00   4.9189186192507811E-01   5.9372753563249236E-01
         2         92   0.0000000000000000E+00   2.2441558482646853E+00   4.0624157212307599E-01   2.9413110760396022E-01
         2         93   0.0000000000000000E+00   3.4192905902114892E+00   4.0278416935360734E-01   4.0692796532797332E-01
         2         94   0.0000000000000000E+00   2.0066289887536892E+00   2.0186827414210537E-01   2.2300301932242883E-01
         2         95   0.0000000000000000E+00   7.0095478179255954E-01   1.3228865805630885E-01   9.3601285822909733E-02
         2         96   0.0000000000000000E+00   2.1602656729982610E+00   8.0103551669288439E-02   1.4269194304005042E-01
         2         97   0.0000000000000000E+00   7.7530605875391212E-01   9.0125849114348330E-02   1.0640688208859532E-01
         2         98   0.0000000000000000E+00   4.5428778569437958E+00   2.8203210188160266E-01   3.9120867079383576E-01
         2         99   0.0000000000000000E+00   1.4859016059098977E+00   2.4589347227523864E-01   2.1040027535904463E-01
         2        100   0.0000000000000000E+00   1.9385629605227648E+00   2.4102010986272482E-01   2.5048135434964386E-01
         2        101   0.0000000000000000E+00   5.1621739691537560E-01   1.2918133087909655E-02   3.0094616627633082E-02
         2        102   0.0000000000000000E+00   2.3839517063604014E+00   1.7880211577035732E-01   2.3097215709286084E-01
         2        103   0.0000000000000000E+00   7.3293812236477784E-01   7.1204172134574459E-02   8.3148325186492150E-02
         2        104   0.0000000000000000E+00   2.5409941690746629E-01   3.9971537718374674E-02   3.1985796888732980E-02
         2        105   0.0000000000000000E+00   1.6332783364846759E-01   1.5185538910738053E-02   1.8323213764753977E-02
         2        106   0.0000000000000000E+00   1.1602363072780721E+00   5.6529610739705312E-02   8.6935185291725017E-02
         2        107   0.0000000000000000E+00   3.1805162496573397E-01   4.2374117720970016E-02   4.3406577064687021E-02
         2        108   0.0000000000000000E+00   3.4687898315627147E-01   4.1827990035826941E-02   4.5457907675120958E-02
         2        109   0.0000000000000000E+00   1.6683741874574068E-01   2.1712701472303437E-02   2.2986072435237422E-02
         2        110   0.0000000000000000E+00   4.6152217047069517E-02   5.4752391861388437E-03   5.4942280628895637E-03
         2        111   0.0000000000000000E+00   4.0710421509441992E-02   1.0592454647478326E-03   2.4027441242382929E-03
         2        112   0.0000000000000000E+00   1.1802033809928612E-01   4.8614705306156119E-03   8.7296355217315515E-03
         2        113   0.0000000000000000E+00   6.7727776401761072E-02   3.1434500760686929E-03   5.2684265068318695E-03
